 Gaussian 09, Revision D.01,
 Gaussian 09:  AS64L-G09RevD.01 24-Apr-2013

 ------------------------------------------------------------
 # opt(Cartesian) freq b3lyp/6-31(d) Integral(Grid=UltraFine)
 ------------------------------------------------------------

 -----
 Title
 -----
 Symbolic Z-matrix:
 Charge =  0 Multiplicity = 1

 SCF Done:  E(RB3LYP) =  -188.390025270     A.U. after   15 cycles
 SCF Done:  E(RB3LYP) =  -188.472588087     A.U. after   13 cycles
 SCF Done:  E(RB3LYP) =  -188.515571556     A.U. after   13 cycles
 SCF Done:  E(RB3LYP) =  -188.545672409     A.U. after   13 cycles
 SCF Done:  E(RB3LYP) =  -188.570427105     A.U. after   13 cycles
 SCF Done:  E(RB3LYP) =  -188.580272338     A.U. after   12 cycles
 SCF Done:  E(RB3LYP) =  -188.573195672     A.U. after   12 cycles
 SCF Done:  E(RB3LYP) =  -188.580936805     A.U. after    9 cycles
 SCF Done:  E(RB3LYP) =  -188.580939386     A.U. after    8 cycles
 Optimization completed.
    -- Stationary point found.
 Normal termination of Gaussian 09 at Thu Feb  8 15:26:34 2018.

 --------------------------------------------------------------------
 #N Geom=AllCheck Guess=TCheck SCRF=Check GenChk RB3LYP/6-31G(d) Freq
 --------------------------------------------------------------------

 Structure from the checkpoint file:  "/tmp/Gau-16048.chk"
 -----
 Title
 -----
 Charge =  0 Multiplicity = 1

                         Standard orientation:
 ---------------------------------------------------------------------
 Center     Atomic      Atomic             Coordinates (Angstroms)
 Number     Number       Type             X           Y           Z
 ---------------------------------------------------------------------
      1          6           0        0.000000    0.000356    0.000000
      2          8           0        1.169100   -0.006214    0.000000
      3          8           0       -1.169100    0.005946    0.000000
 ---------------------------------------------------------------------

 SCF Done:  E(RB3LYP) =  -188.580939386     A.U. after    1 cycles

 The electronic state is 1-A'.
 Alpha  occ. eigenvalues --  -19.23658 -19.23658 -10.38528  -1.16100  -1.11966
 Alpha  occ. eigenvalues --   -0.56233  -0.51655  -0.51278  -0.51278  -0.36997
 Alpha  occ. eigenvalues --   -0.36997
 Alpha virt. eigenvalues --    0.02994   0.02995   0.08436   0.36575   0.47260
 Alpha virt. eigenvalues --    0.47260   0.58438   0.73529   0.78154   0.87420
 Alpha virt. eigenvalues --    0.87420   1.03782   1.04167   1.04167   1.37745

 Mulliken charges:
               1
     1  C    0.719462
     2  O   -0.359733
     3  O   -0.359728
 Sum of Mulliken charges =   0.00000

 Dipole moment (field-independent basis, Debye):
    X=              0.0000    Y=              0.0012    Z=              0.0000  Tot=              0.0012
 Quadrupole moment (field-independent basis, Debye-Ang):
   XX=            -18.9141   YY=            -14.4507   ZZ=            -14.4506
   XY=              0.0232   XZ=              0.0000   YZ=              0.0000

  Exact polarizability:  22.073  -0.075   7.689   0.000   0.000   7.688
 Approx polarizability:  46.772  -0.192   9.915   0.000   0.000   9.914

                      1                      2                      3
                     A'                     A'                     A'
 Frequencies --    639.8967              1372.2285              2436.6620
 Red. masses --     12.8774                15.9949                12.8774
 Frc consts  --      3.1067                17.7454                45.0472
 IR Inten    --     30.7213                 0.0000               545.8868

 - Thermochemistry -
 -------------------
 Temperature   298.150 Kelvin.  Pressure   1.00000 Atm.
 Atom     1 has atomic number  6 and mass  12.00000

 Molecular mass:    43.98983 amu.
 Principal axes and moments of inertia in atomic units:
                           1         2         3
     Eigenvalues --     0.00001 156.14388 156.14389
           X            0.99999   0.00520   0.00000
           Y           -0.00520   0.99999   0.00000
           Z            0.00000   0.00000   1.00000
 This molecule is an asymmetric top.
 Rotational symmetry number  1.
 Rotational temperatures (Kelvin) ************     0.55471     0.55471
 Rotational constants (GHZ):      ************    11.55819    11.55819
 Zero-point vibrational energy      26609.7 (Joules/Mol)
                                    6.35986 (Kcal/Mol)
 Vibrational temperatures:    920.67  1974.33  3505.81
          (Kelvin)

 Zero-point correction=                           0.010135 (Hartree/Particle)
 Thermal correction to Energy=                    0.013115
 Thermal correction to Enthalpy=                  0.014060
 Thermal correction to Gibbs Free Energy=        -0.006745
 Sum of electronic and zero-point Energies=           -188.570804
 Sum of electronic and thermal Energies=              -188.567824
 Sum of electronic and thermal Enthalpies=            -188.566880
 Sum of electronic and thermal Free Energies=         -188.587685

                     E (Thermal)             CV                S
                      KCal/Mol        Cal/Mol-Kelvin    Cal/Mol-Kelvin
 Total                    8.230              7.029             43.788
 Electronic               0.000              0.000              0.000
 Translational            0.889              2.981             37.270
 Rotational               0.889              2.981              6.111
 Vibrational              6.453              1.067              0.406

 Optimization completed.
    -- Stationary point found.
 Normal termination of Gaussian 09 at Thu Feb  8 15:26:48 2018.
