 Gaussian 16, Revision A.03,
 Gaussian 16:  ES64L-G16RevA.03 25-Dec-2016

 -------------------------------------------------
 # opt freq=(raman,savenormalmodes) b3lyp/6-31g(d)
 -------------------------------------------------

 -----
 Ozone
 -----
 Symbolic Z-matrix:
 Charge =  0 Multiplicity = 1

 SCF Done:  E(RB3LYP) =  -225.394109652     A.U. after   15 cycles
 SCF Done:  E(RB3LYP) =  -225.403565114     A.U. after   12 cycles
 SCF Done:  E(RB3LYP) =  -225.406420364     A.U. after   13 cycles
 SCF Done:  E(RB3LYP) =  -225.406435937     A.U. after    9 cycles
 SCF Done:  E(RB3LYP) =  -225.406458897     A.U. after    9 cycles
 Optimization completed.
    -- Stationary point found.
 Normal termination of Gaussian 16 at Tue Mar  6 12:10:11 2018.

 --------------------------------------------------------------------
 #N Geom=AllCheck Guess=TCheck SCRF=Check GenChk RB3LYP/6-31G(d) Freq
 --------------------------------------------------------------------

 Structure from the checkpoint file:  "ozone.chk"
 -----
 Ozone
 -----
 Charge =  0 Multiplicity = 1

                         Standard orientation:
 ---------------------------------------------------------------------
 Center     Atomic      Atomic             Coordinates (Angstroms)
 Number     Number       Type             X           Y           Z
 ---------------------------------------------------------------------
      1          8           0       -0.000000    0.434709   -0.000000
      2          8           0        1.083437   -0.217460    0.000000
      3          8           0       -1.083437   -0.217249   -0.000000
 ---------------------------------------------------------------------

 SCF Done:  E(RB3LYP) =  -225.406458897     A.U. after    1 cycles

 The electronic state is 1-A'.
 Alpha  occ. eigenvalues --  -19.45118 -19.27041 -19.27037  -1.36618  -1.09698
 Alpha  occ. eigenvalues --   -0.77953  -0.59922  -0.58996  -0.58966  -0.36148
 Alpha  occ. eigenvalues --   -0.34446  -0.33522
 Alpha virt. eigenvalues --   -0.18471   0.08084   0.17130   0.61191   0.70402
 Alpha virt. eigenvalues --    0.72602   0.75742   0.79420   0.85758   0.88929
 Alpha virt. eigenvalues --    0.93188   0.93287   1.00249   1.21623   1.26179

 Mulliken charges:
               1
     1  O    0.231040
     2  O   -0.115554
     3  O   -0.115486
 Sum of Mulliken charges =   0.00000

 Dipole moment (field-independent basis, Debye):
    X=             -0.0003    Y=              0.6146    Z=              0.0000  Tot=              0.6146
 Quadrupole moment (field-independent basis, Debye-Ang):
   XX=            -16.8143   YY=            -15.5595   ZZ=            -14.2869
   XY=              0.0001   XZ=              0.0000   YZ=             -0.0000

  Exact polarizability:  25.063  -0.002   8.086   0.000   0.000   6.239
 Approx polarizability:  83.720  -0.009  12.810   0.000   0.000   8.770

                      1                      2                      3
                     A'                     A'                     A'
 Frequencies --    735.3276              1240.0818              1265.3932
 Red. masses --     15.9949                15.9949                15.9949
 Frc consts  --      5.0956                14.4921                15.0898
 IR Inten    --      8.1643               165.4422                 0.1915
 Raman Activ --      5.5420                 3.5262                12.0572

 - Thermochemistry -
 -------------------
 Temperature   298.150 Kelvin.  Pressure   1.00000 Atm.
 Atom     1 has atomic number  8 and mass  15.99491

 Molecular mass:    47.98474 amu.
 Principal axes and moments of inertia in atomic units:
                           1         2         3
     Eigenvalues --    16.19078 134.09643 150.28720
           X            1.00000   0.00011   0.00000
           Y           -0.00011   1.00000   0.00000
           Z            0.00000  -0.00000   1.00000
 This molecule is an asymmetric top.
 Rotational symmetry number  1.
 Rotational temperatures (Kelvin)      5.34958     0.64591     0.57632
 Rotational constants (GHZ):         111.46725    13.45853    12.00862
 Zero-point vibrational energy      19384.3 (Joules/Mol)
                                    4.63296 (Kcal/Mol)
 Vibrational temperatures:   1057.97  1784.20  1820.62
          (Kelvin)

 Zero-point correction=                           0.007383 (Hartree/Particle)
 Thermal correction to Energy=                    0.010342
 Thermal correction to Enthalpy=                  0.011286
 Thermal correction to Gibbs Free Energy=        -0.016404
 Sum of electronic and zero-point Energies=           -225.399076
 Sum of electronic and thermal Energies=              -225.396117
 Sum of electronic and thermal Enthalpies=            -225.395173
 Sum of electronic and thermal Free Energies=         -225.422863

                     E (Thermal)             CV                S
                      KCal/Mol        Cal/Mol-Kelvin    Cal/Mol-Kelvin
 Total                    6.490              7.071             58.280
 Electronic               0.000              0.000              0.000
 Translational            0.889              2.981             37.529
 Rotational               0.889              2.981             20.417
 Vibrational              4.712              1.109              0.333

 Optimization completed.
    -- Stationary point found.
 Normal termination of Gaussian 16 at Tue Mar  6 12:10:24 2018.
